LAMMPS data file via write_data, version 29 Oct 2020, timestep = 1200000, adjusted box size

1728 atoms
2 atom types

0.0 17.8506 xlo xhi
0.8976491802616451 45.73995081973497 ylo yhi
0.0 21.9326 zlo zhi

Masses

1 15.9994
2 1.00794

Atoms # atomic

200 2 2.302697261559134 2.69174231122146 1.417362191823254 -1 1 0
199 1 2.628064866080308 3.529287351697738 1.0696622676162004 -1 1 0
1422 2 3.1192849423293705 5.042051077932184 3.706147284427095 0 0 0
1421 2 3.1355989597736604 4.90641195146936 2.262890402177725 0 0 0
201 2 2.5574118556573495 3.6752113153469375 0.12365192155596423 -1 1 0
785 2 4.265382854606061 3.1505608356865347 1.7370897225142508 -1 0 0
140 2 1.5182346008808296 0.9526729064680223 2.5820850297128906 -1 0 2
139 1 1.8785859367160365 1.0183133469989694 1.6900051223599963 -1 0 2
693 2 0.1705615553082822 3.860732170266375 0.9241890438649042 1 0 2
305 2 5.533646921311533 4.824167766992776 3.9665728563025673 2 0 0
784 1 5.078331948452812 3.2593842525171985 2.260242140500201 -1 0 0
181 1 7.082282884004638 5.106784630141304 1.7185850822100546 2 -1 0
786 2 5.731156688925854 3.690243232985831 1.76375233947413 -1 0 0
609 2 8.630741068323992 1.5315810152838762 1.9439337781422859 -1 -1 0
1599 2 8.260926584131223 3.7638187116882786 1.4899161929194926 1 0 -1
182 2 6.881679754766839 5.362239837180949 0.8124183002420365 3 -1 0
1597 1 9.006197641058042 3.152928500615989 1.346424202947983 1 0 -1
1598 2 9.709387341027416 3.7324545643297364 1.7008196570495366 1 0 -1
179 2 12.019637145365456 3.472340525815184 2.9983059425630136 -1 0 0
178 1 11.382752845659981 4.160328946097463 2.660132982026308 -1 0 0
180 2 11.85917681680573 4.991119765095879 2.6056466106699347 -1 0 0
301 1 13.01254774734909 2.205769231408217 3.713955752695869 0 1 0
302 2 12.364023248628614 1.7844953181085095 4.281325995881634 0 1 0
1029 2 16.385523283758317 4.609246280414478 2.136980145692761 0 0 -1
1027 1 15.856362233446907 5.373571290026686 2.478860843374807 0 0 -1
1302 2 14.760884500170297 4.890152055066933 4.157569067795405 -2 1 0
1301 2 13.966779911009452 3.498241768794843 4.222060927507324 -2 1 0
303 2 13.601640058267414 1.5571334038847056 3.241411739602966 0 1 0
692 2 17.715263102472214 2.841870887797839 1.9744731821859836 0 0 2
691 1 17.306440864487065 3.402734532563288 1.3380124169226646 0 0 2
706 1 0.30284857336174104 5.392861928395599 4.135727809799011 -3 1 2
708 2 1.1272146382400967 5.654005415220819 3.7436762318300882 -3 1 2
1199 2 3.1828159234126443 9.044783927054215 2.8318648633279655 1 0 -1
1198 1 2.687095827072363 8.214937392557733 3.130258858720365 1 0 -1
1200 2 2.9582863110160895 7.505691626771148 2.5138022488166967 1 0 -1
1420 1 3.031189581687542 5.597752737262492 2.915106004865579 0 0 0
1668 2 1.0824267158019476 8.931999393935364 3.6273719096316817 -1 1 0
451 1 3.8875306074928235 9.029865069460191 0.1344804923842444 1 -1 1
285 2 0.14782448873659249 7.856771596434757 2.3783778626653 0 0 1
284 2 0.18677460281042796 8.242435155339905 0.9135489763359067 0 0 1
1529 2 2.032814719357257 9.386959216647252 0.6338826892314124 1 0 0
1715 2 3.1786257514602885 7.278518884015999 4.378890005471289 3 0 1
1666 1 0.29372097744827064 9.511983460134296 3.769535105308669 -1 1 1
1667 2 0.008523149415492419 9.776248288336404 2.8966265184604554 -1 1 0
183 2 7.605620831165406 5.916980542208121 1.9505755920720758 2 -1 0
1503 2 5.683855149062661 7.287486636908233 1.1921196245784373 -1 1 2
1501 1 5.93834798074998 8.03733440415515 1.7815623558630698 -1 1 2
452 2 4.80741630834409 8.796915167289129 0.2976403655893482 1 -1 1
1502 2 6.888085718080489 7.965079621779515 1.7108142496029524 -1 1 2
194 2 5.864618337452938 8.56792574827437 3.4298863264787887 2 0 1
76 1 8.507636213315372 7.431941663944489 1.1539438524168375 -1 0 2
78 2 8.367420769705047 7.58724714603309 0.15852259320962464 -1 0 2
1291 1 11.36439657589441 6.774226871640515 1.727988584099129 -1 1 0
1292 2 11.932483764344038 7.524958492189332 1.7333224784726555 -1 1 0
77 2 9.441073798601696 7.655971396892585 1.3489837025207263 -1 0 2
819 2 10.450851017583727 6.847226670268354 3.3493398118822384 1 1 0
1293 2 11.723128659650094 6.293190902040176 0.8867504732023817 -1 1 0
1238 2 13.32161135935498 9.443190732118598 0.5798544988120529 0 1 0
817 1 10.4766401947073 7.015883628622259 4.318408554528897 1 1 0
198 2 13.394387447226336 9.333988673770186 4.170898405946522 0 0 2
1468 1 10.309139391096046 9.656671359393808 2.5116232571556467 0 1 2
1028 2 16.454516395555522 5.784714331732075 3.1296238889972208 0 0 -1
1163 2 17.737721900214428 6.000184614992224 0.5213983404097499 1 1 0
1237 1 13.66739085793576 8.787853911924845 1.278590860105003 0 1 0
283 1 17.666954104077515 7.59357349960251 1.5507326827307852 -1 0 1
1239 2 13.979939617585252 7.975267436468344 0.9085635912815988 0 1 0
197 2 13.961159109824433 8.981597722613698 2.8034821730614885 0 0 2
1100 2 15.121099505709473 6.273608442599409 1.0271213168355742 1 1 0
196 1 14.192228525200932 9.051170404474076 3.7207225743585877 0 0 2
1061 2 15.488577201615646 9.562082014728672 0.7516905376346673 1 0 0
1099 1 14.671094926351238 6.563280025744091 0.24340298642353253 1 1 0
1528 1 1.2831665683078917 9.942159370319812 0.8788069247832685 1 0 0
631 1 3.576023853828514 11.136654101817857 3.5300750408751163 -1 0 0
1277 2 2.4224591200746315 12.082213396310912 2.831302315473008 1 0 0
1276 1 1.7434189159295663 12.475560156765559 2.208385459059905 1 0 0
881 2 1.711043131882997 13.10232734655973 0.6426753650116236 1 0 2
1278 2 0.8417108060512487 12.211109315390932 2.520320369567337 1 0 0
632 2 4.460649968541077 11.509375909869089 3.4304541599098677 -1 0 0
1530 2 1.7272349646228347 10.708066462471987 1.2839067658460512 1 0 0
485 2 4.231803599781537 14.06217041233718 1.7242917240544746 2 0 -1
1527 2 6.9922238178574005 10.213740715138803 1.5561874474814532 0 1 1
1526 2 7.573335712758456 11.570240324243109 2.214746961704047 0 1 1
1525 1 7.8298130801068435 10.735382515869583 1.7908572595479453 0 1 1
1432 1 5.314795234302715 13.29207318338272 2.680135548122279 -1 1 1
1433 2 6.3162569239467 13.431179987752348 2.397937910410009 -1 1 1
1325 2 8.634244786500751 13.526908694335265 2.497734328741403 1 0 0
1324 1 7.916885235133914 13.6218358097094 1.739869141803681 1 0 0
1326 2 8.245955012940387 13.147490527048735 0.9271176621014736 1 0 0
1434 2 5.137566985736102 13.676318749125121 3.587149061053497 -1 1 1
1470 2 9.438793283300965 10.068843435776216 2.29696219143428 0 1 2
1469 2 10.632208324255098 10.155915294825977 3.288968000089346 0 1 2
1413 2 11.39762535855243 10.408505275498946 0.808729319137803 -2 1 2
1411 1 11.966297102969747 10.382759668501073 0.045095566546357865 -2 1 2
949 1 9.70743533834994 13.729013078546414 3.540870951936806 1 1 1
951 2 10.085537864148355 13.019721721794733 3.9930859957603078 1 1 1
950 2 10.48815392235599 14.27087095401803 3.146669655038808 1 1 1
1258 1 16.997533565602858 11.764484515939726 2.3006119707046846 -2 1 -1
1260 2 16.84188450117122 12.648096786722633 2.003819915065564 -2 1 -1
1062 2 16.431552114665934 10.788441128366818 0.6981230753566617 1 0 0
1060 1 16.072706414993966 10.051607258365513 0.11652315349128575 1 0 0
1259 2 16.319300374209888 11.638873805156766 2.983913160072598 -2 1 -1
92 2 16.013347775838135 14.274555511036448 0.3205525859672663 -1 0 -1
91 1 16.482037599655484 14.162094505143159 1.1771841598793928 -1 0 -1
2 2 14.660778134258178 10.542638470367292 4.124796042935288 -3 0 1
1 1 15.15867480355051 11.413078585968705 4.2363711533525255 -3 0 1
3 2 14.458533461568763 12.11762139994578 4.155706114774364 -3 0 1
1172 2 2.20952356033824 14.608381477202132 3.647265964509759 0 1 0
486 2 2.906591101744872 14.480149530199899 1.050424134959232 2 0 -1
484 1 3.742217943777122 14.863281367092668 1.337927761837551 2 0 -1
516 2 4.205526097774199 17.548758282126098 3.9943811286025834 3 -1 -1
290 2 1.1300333817615136 18.146355444229734 0.7184497612958414 -1 -1 1
289 1 0.27439780598468116 17.67736344427664 0.41452256190024916 -1 -1 1
1451 2 7.628806392533768 18.02416646507709 0.9726914239807664 1 0 0
1510 1 8.896467871191918 16.461317434477245 1.228225825198982 1 0 1
1512 2 8.845732292156203 15.761030469454369 1.8450713008552349 1 0 1
1407 2 5.2503858498171425 18.56699466211078 2.04877970057803 1 0 -1
1450 1 6.965235336189103 18.70360740690593 1.1322352084991398 1 0 0
1589 2 12.600777487973138 14.360374213015197 3.329217151453176 1 1 2
1511 2 9.782849715994287 16.850989317332534 1.2098759269690906 0 0 1
1590 2 12.37189857766783 15.274113326748067 2.0263632244309453 1 1 2
982 1 13.294472843941364 16.05280779332517 0.5015526338184801 0 0 0
1588 1 11.896981161373773 14.823373104251234 2.7716863305073236 1 1 2
1660 1 11.469014869224644 17.92698148605877 0.9189722431232318 0 1 -1
1661 2 11.60753024062974 18.520284286178878 1.7269870822817461 0 1 -1
983 2 12.621685305969185 16.851582524671777 0.6663206577488673 0 0 0
975 2 11.497823356634996 16.134540798211685 3.9550253849105883 0 1 -1
974 2 11.141879132195863 17.69414633485522 3.7616020281624722 0 1 -1
973 1 11.066272770406103 16.939961014979286 4.379283573771113 0 1 -1
1662 2 11.051119658264637 18.522122104166517 0.1840752799247097 0 1 -1
984 2 13.861977892704784 16.07146075450872 1.3239676465692518 0 0 0
93 2 16.591785377492027 15.093331705154377 1.5198634172864347 -1 0 -1
1231 1 15.294891453949175 16.202691874508325 2.4443571166818034 2 1 1
1232 2 15.341486900235202 16.046743553758095 3.419626789125048 2 1 1
1233 2 15.677213655782802 17.131214971519697 2.4583367901753306 2 1 1
167 2 17.362721486555497 17.60904428055775 3.9265820965959413 -1 1 0
291 2 17.535977673049697 17.766398208198286 1.2399857791937108 -2 -1 1
166 1 17.230848757768452 18.190719242794813 3.12551815643886 -1 1 0
696 2 3.0979071742846074 18.994087400151493 1.6170858836711308 0 0 0
694 1 2.1725074015844634 19.105628716943425 1.3790803363497839 0 0 0
1587 2 1.440764929818694 22.775677418431084 1.837245583001644 1 -1 2
695 2 1.986964597303336 20.07708677936306 1.6240136583588147 0 0 0
1585 1 2.050128283514849 22.038455485255415 1.9183405203967587 1 -1 2
65 2 3.3541146810975557 21.935236614136954 0.6621684295880774 0 0 1
854 2 3.972612729017545 21.669570688366882 4.267983188142192 2 1 2
1586 2 2.1612087944215306 21.90705812677972 2.8615070743585167 1 -1 2
1405 1 4.514170564883428 18.83794326838104 2.600466844940516 0 0 -1
1406 2 4.793465364636258 19.67536656003802 2.9924079255996943 1 0 0
853 1 4.715146426454331 21.31065915811668 3.7114588536077213 2 1 2
1452 2 7.362325821605404 19.314498525820497 1.7922619426232027 1 0 0
1428 2 8.82865769442892 20.65628254056172 2.750102622222608 1 0 0
855 2 5.065716452360754 22.06434057561071 3.147928634893655 2 1 2
1426 1 7.850251809896175 20.684044742376948 2.974426676757247 1 0 0
1665 2 7.8018342068991435 22.208131646001366 3.673749229921675 3 1 1
1427 2 7.705074823777167 20.079237610947214 3.752286834506122 1 0 0
963 2 5.106110911621179 23.052926462649065 0.11703301683337072 1 0 -1
1663 1 7.810846781207217 23.02996891446379 4.1626441156640395 3 1 1
450 2 12.738563812895533 19.87042431075236 3.3490689498987836 -1 0 0
448 1 11.912701509682115 19.58991563287795 2.9913910283862295 -1 0 0
49 1 10.293464718191261 21.46790331851362 2.3852696904460515 2 0 0
50 2 10.444302135276235 21.917077421645175 1.5249051533933184 2 0 0
51 2 10.555781956597876 22.013402167654583 3.1854068782525826 2 0 0
449 2 11.365647145574178 20.353632851698798 2.623171174869222 -1 0 0
168 2 17.09575339839076 19.078184387865292 3.484054161436594 -1 1 0
884 2 13.965082984354659 22.014465484604905 3.386578693933431 0 0 -1
1679 2 16.57827509028057 21.725468987403552 3.8144062259101115 0 1 0
1678 1 16.72823537526829 20.744198978490672 3.888850249005467 0 1 0
883 1 13.639972996181584 21.28316239516215 3.9465597561038575 0 0 -1
171 2 17.750258632831247 20.29624630911932 0.11010705664479303 0 0 0
311 2 16.351467623397667 22.564395035558835 0.1027149927029889 1 0 -2
294 2 15.247357015658647 23.200365428790448 1.7621899712992337 -2 0 1
292 1 15.057307374131197 23.093380138937626 2.686893775534886 -2 0 1
328 1 2.8650659788959105 3.7922430339003954 4.962475435138886 2 0 1
330 2 2.143091602469674 3.8097242038035777 5.682453548908465 2 0 1
707 2 0.2690224759220854 4.489383164441573 4.45158667341956 -3 2 2
329 2 2.926944594189571 2.8947718661323893 4.658331569426556 2 0 1
1332 2 0.2540288329066802 3.523442069176102 7.017541083619898 3 1 0
1330 1 1.1738761631809433 3.261939409845307 7.104364234731085 3 1 0
1331 2 1.5481556145968058 3.737977448607269 7.890962646397166 3 1 0
83 2 4.062569536922184 3.4062099817514517 6.820068281078713 0 0 1
1313 2 1.3693054664523436 1.1229635083350398 7.577689167127645 -1 0 0
142 1 3.159011542924401 0.9949591752644054 5.254771423795192 -1 0 2
304 1 5.818934224286069 5.136341241041103 4.771263515486931 2 0 0
84 2 5.329521766108528 3.9628747455806894 6.2224675718863 0 0 1
82 1 4.92241681436518 3.6990289520587085 7.040636846539497 0 0 1
467 2 6.032218876756622 2.7138993997749656 7.993345735867306 1 0 1
466 1 6.468486013957505 1.9991848017311893 8.518431624171713 0 0 1
468 2 7.313524631501911 2.467364424786667 8.657137431658 0 0 1
286 1 8.43317987088403 3.895657219201484 8.389917742029976 1 0 2
371 2 11.41564820470132 3.9790091548587188 6.871494045252516 -1 1 -1
370 1 11.059193160800808 3.1871977497061703 7.2775115676605395 -1 1 -1
372 2 11.750543090189163 2.9372857820038973 7.923783855926479 -1 1 -1
287 2 9.155088670279175 3.5405763507045727 7.855991467480373 1 0 2
1424 2 12.950480995316086 5.0041811485440855 5.584904966471566 1 1 -1
1275 2 11.108635696769284 1.776867353450249 6.171125642857204 -2 1 -2
1273 1 11.185243699667954 0.9814707224997788 5.574864950589287 -2 1 -2
1475 2 17.041567902466415 2.1452669659320174 5.0663994742722815 -2 1 1
1474 1 16.974586523477427 3.091200983338727 5.274991800579805 -2 1 0
1300 1 14.360745940590878 4.211285645640396 4.7937749612640355 -2 1 0
1476 2 16.003539186195862 3.295985659700995 5.289988787665507 -2 1 0
458 2 16.77523428886511 5.005574768867182 6.0923517337733095 -1 0 1
1670 2 2.279955643420168 6.841381018152748 6.018049985291302 2 1 -1
948 2 2.093312454613643 5.900170509166046 8.513953284038713 -1 1 -1
1669 1 1.4754587023642922 6.850598034183057 6.638531294698664 2 1 -1
1714 1 3.655371238555278 7.145845062328593 5.238402436676711 3 0 1
1695 2 0.9045429167026889 9.631231734985592 8.131396702952733 0 1 2
1374 2 0.8662278579407409 7.682841021519387 8.198063582118074 2 0 0
1671 2 0.7362498348506215 6.416139686231824 6.121042927106672 2 1 -1
1716 2 4.183802987483065 6.3401923388983565 5.1222322540148975 3 0 1
630 2 7.502464461255601 7.555990359264488 5.119099575563629 -1 0 1
620 2 8.685453463396936 5.920404264789718 8.176431792724346 0 1 -1
619 1 8.795039589296142 6.788273400984858 7.824925230145451 0 1 -1
306 2 6.768972799123351 5.633504444635498 4.72904898344878 2 0 0
193 1 6.019243533590977 8.786116016676576 4.395928183467496 2 0 1
628 1 8.133735623267723 6.846607446781673 5.31802784199571 -1 0 1
629 2 8.367060467534822 6.98897987020532 6.308956076325727 -1 0 1
195 2 5.219709341013086 8.422021117224475 4.9440379591115935 2 0 1
1298 2 5.433402634090528 5.655649186449978 8.015974621000561 -1 0 1
818 2 9.562711775923612 6.837512428710986 4.7302276892054325 1 1 0
1423 1 12.195583463514886 5.458874809409385 6.06435650846046 1 1 -1
256 1 11.997706561963568 6.823826452224486 8.417118336114267 0 0 1
621 2 9.287242344068703 7.288523795636646 8.501851023014822 0 1 -1
1425 2 11.598940118364986 5.989729431782233 5.471991629178222 1 1 -1
582 2 11.389263604117847 8.357751911505769 4.917364025250789 1 0 0
580 1 11.775587293908629 9.244406638311352 5.096216029503207 1 0 0
581 2 11.858858184154847 9.36426101659834 6.075417860438935 1 0 0
771 2 10.603745576604096 9.802323370142183 8.349067417400114 0 0 0
759 2 12.95860921332873 8.097171092423174 8.624673123416976 0 0 -1
257 2 12.205783040689926 6.273980837550757 7.602085689604607 0 0 1
457 1 16.528976946961702 5.598847352893172 6.852073714931452 -1 0 1
798 2 16.89374046277766 8.554481111983879 4.693486036754006 -3 0 0
459 2 16.29762632578883 6.476596730489653 6.401603169253159 -1 0 1
797 2 15.572310569934409 7.983465739551899 4.811614121989373 -3 0 0
441 2 16.004833815194345 9.331781237650747 6.490089524312259 0 0 -1
796 1 16.363014697929827 8.016161564047376 5.293523951002253 -3 0 0
440 2 14.894365925000693 9.38468757477609 7.604506690864716 0 0 -1
600 2 16.333312916085507 5.471230125693806 8.696952591373012 -1 0 0
757 1 13.561029486928573 8.86055515688684 8.739587036750263 0 0 -1
1693 1 1.5614206302167428 10.224261220117484 7.767984098923598 0 1 2
633 2 3.4396597865556338 10.918956186760292 4.4850409766740045 -1 0 0
1694 2 1.0194169901455188 10.902621700603017 7.262465284628301 0 1 2
1613 2 0.19497281479021525 11.735355872915129 5.223946672419385 0 0 1
1612 1 0.5782328062394554 12.201307635847957 5.9572082423900445 0 0 1
814 1 3.5432590056274536 10.833179397534215 6.197349449082411 0 0 -1
153 2 3.3375535116261266 12.512279937882573 6.4327234199243355 2 0 2
816 2 2.847083874257581 10.4552867175452 6.770835650232524 0 0 -1
151 1 3.206633399332109 13.48614560856317 6.439476637740569 2 0 2
152 2 2.571995870727278 13.813999838086032 5.767708698410501 2 0 2
815 2 4.3935927159815105 10.692298809503303 6.68100380273179 0 0 -1
1019 2 3.2216476719948806 13.976266378183553 8.089121552513955 1 1 0
649 1 6.022057143101108 10.71377358187178 7.91744213002529 0 0 1
651 2 6.611396223874667 11.002673185276478 7.215119145670391 0 0 1
650 2 6.068222256446856 11.375273357974711 8.65289113205603 0 0 1
1455 2 6.916477635892939 11.613934773275146 4.791162843127211 -1 1 1
1454 2 6.864957665683614 10.086144113838301 4.850257458646349 -1 1 1
1453 1 7.284739591935729 10.891761069572265 5.285497814144069 -1 1 1
1378 1 8.709827628269469 12.100486079642266 8.163509423097222 -1 1 -1
1656 2 4.739420128425494 14.114469906531943 5.7647999799110305 2 0 -1
1727 2 8.120206323375449 13.879561004464442 7.010615798660717 -1 0 0
770 2 11.854326919336724 10.80048833327742 8.440865549927988 0 0 0
769 1 11.170611448224333 10.473474933680702 7.850233889224874 0 0 0
668 2 10.550193245844863 11.002742129058545 5.570904150481492 -1 0 1
667 1 10.100283527171957 11.620846550514868 4.990806644468178 -1 0 1
669 2 9.15648141971315 11.456000357143147 5.208622699936957 -1 0 1
1379 2 9.515139971903345 11.58976899632481 7.885158296020476 -1 1 -1
1076 2 13.143711343414322 13.35543305422474 5.329753071761884 -3 0 0
478 1 12.116707867442189 13.374491653821202 7.0716490868924184 1 0 -1
480 2 11.272855866164274 13.003959402615093 7.046697016287992 1 0 -1
479 2 12.613059022871688 12.816430915076854 7.796313352994068 1 0 -1
439 1 15.692107143347018 9.87801320929022 7.2727340168407375 0 0 -1
1075 1 13.499054524360155 13.56367826415095 4.482383237936675 -3 0 0
1614 2 17.62214755640901 12.451199036880384 6.486094210732303 -1 0 1
718 1 15.894074043153275 12.633286282133199 6.898203626928655 -1 0 2
720 2 15.696762246526033 11.750250594581873 7.190623850310986 -1 0 2
719 2 15.664084410822696 12.568527336278125 5.953834855174458 -1 0 2
1554 2 15.893550823708576 14.346872916902369 8.136513114154981 0 0 -1
1077 2 14.312795073670392 14.102902355023568 4.6263831904820645 -3 0 0
261 2 0.5954081773567582 15.570280159285268 5.114215190944562 0 0 0
1173 2 2.4829200858471765 15.818408842084928 4.680558413662021 0 1 0
1171 1 1.9002003015121651 14.987641615768215 4.512528547466203 0 1 0
514 1 3.77214591856264 17.103851516284166 4.776219477045838 3 -1 -1
1086 2 0.5814231710906567 16.70846698758826 8.64116026204067 1 0 0
515 2 3.9164815924862566 17.638824264968836 5.534450640939591 3 -1 -1
1084 1 0.12916476288157483 17.371938194480705 8.005095101581235 1 0 0
1655 2 4.969561098191588 15.324927042190446 4.941269191487272 2 0 -1
1654 1 5.4396002091815 14.551587060999854 5.266022796619922 2 0 -1
965 2 8.444185495560758 16.011432612754184 6.345248459335014 1 0 1
1726 1 7.606938925476264 14.673256227238062 6.941162720022665 -1 0 0
1728 2 6.88541335551245 14.582803617668834 6.317425203867093 -1 0 0
964 1 8.778388080802358 16.86700869444315 6.032057564551002 1 0 1
1400 2 8.377578532405458 18.324246698265565 7.356975473998043 -1 1 -1
162 2 4.923266124190554 18.695143844152003 7.521115187111368 0 0 1
27 2 6.691908915883912 14.941260987551498 8.764467843558124 -1 0 -1
1362 2 7.87434459365545 18.298235618652335 5.257931499692674 -1 0 0
1399 1 8.145725653789553 18.73776630214619 8.178372355842445 -1 1 -1
966 2 9.616475721234178 16.71357382894088 5.505267654917408 1 0 1
1056 2 12.91431217204016 17.342689879930738 5.5094148036493795 0 1 1
1044 2 13.02008534699676 16.547235054775275 7.551076341949329 0 1 0
1043 2 12.650354499588017 15.03012425431084 7.636594947948121 0 1 0
1042 1 13.026087634067798 15.779860979484766 8.127124059847207 0 1 0
259 1 17.699677888303295 16.104775167714017 5.392818214236294 -1 0 0
1054 1 13.677972324495846 17.486348191741293 6.083580148795051 0 1 1
898 1 15.230743337203522 15.560529501350256 5.00881305627573 0 1 2
1085 2 17.0671764633489 17.33607426222167 8.346321581626052 0 0 0
260 2 17.80215025151516 16.53503891284361 6.250679400260477 0 0 0
899 2 16.169101937487532 15.62981454846958 5.341868256381506 0 1 2
900 2 14.785540027769327 16.33370426824341 5.4832048602301535 0 1 2
1553 2 14.767269522327808 15.354345310188815 8.44568385555599 0 0 -1
1055 2 13.897378156500759 18.452489293852192 6.064262356504178 0 1 1
1724 2 1.7751336117515464 22.811079621151176 4.85042106136928 -1 0 0
1723 1 2.5245779816579437 22.131714643665042 4.906056918068647 -1 0 0
1725 2 2.433343950711327 21.744975379945924 5.805508162947141 -1 0 0
1094 2 2.789506145134243 20.235084349408762 8.0584791638423 1 0 -1
1093 1 3.1692488460340558 20.963116616037308 7.545655282850522 1 0 -1
1095 2 2.919121231577934 21.709760553918805 8.103274418754065 1 0 -1
161 2 4.419286891078067 19.789862212046494 6.692947315820463 0 0 1
521 2 0.9056210147988144 22.594682729491545 8.391635485888745 -1 1 0
520 1 0.15629143985655058 21.982568354172624 8.344241149484432 -1 1 0
839 2 0.062162149124113525 19.689585678097146 6.716631442093756 0 0 0
160 1 5.0155886775056375 19.044055826762797 6.582364198134082 0 0 1
1360 1 7.419285008321148 19.13332284390273 5.035260997484032 -1 0 0
1361 2 6.643831193093576 19.14605737038495 5.582956234266483 -1 0 0
1438 1 6.016880082433482 22.125774431507306 5.979952644690625 1 0 -1
1440 2 5.607030512234082 21.593004166835698 5.274432434948174 1 0 -1
447 2 6.88071839431735 21.280081931250454 7.366076549309792 0 0 -1
445 1 7.525289921230721 21.099114207588148 8.153248680086401 0 0 -1
1401 2 8.034259208575794 19.687737465455555 8.034515686400388 -1 1 -1
1439 2 6.863303429613586 22.488328545895666 5.5719697393278365 1 0 -1
711 2 12.184014269718459 21.942101636513154 4.411722818890714 -1 -1 -2
709 1 11.50911212183436 22.6726423767522 4.516101039208993 -1 -1 -2
710 2 11.312067348386321 22.74601918222803 5.4430321201049 -1 -1 -2
993 2 13.380334286068429 22.850484163568996 7.277618308869545 -1 -1 1
548 2 8.976946303414039 22.21650133480375 8.537940864527425 0 0 0
547 1 9.672408821360822 22.92637827186378 8.444459570618086 0 0 0
509 2 11.108309731410221 23.170127378914337 7.559318274957645 -1 0 0
885 2 14.402475748622898 21.13724380880545 4.536598298405261 0 0 -1
1700 2 15.169788345707996 18.95877720425129 8.221788815981364 1 0 -1
838 1 17.394460694023657 20.458164120274 6.3642087336847135 -1 0 0
840 2 17.590198087034786 21.11418832651845 7.011976739487551 -1 0 0
991 1 14.271430856925104 22.440298376768318 7.285547401695647 -1 -1 1
1443 2 15.751283235055249 19.997022182566077 6.474604474882049 1 1 1
1441 1 14.765300669830081 19.860700927126583 6.767225748059098 1 1 1
1442 2 14.353226044443348 20.724020591296295 6.869497155226871 1 1 1
1680 2 17.060308263793438 20.754970943034742 4.848715165660405 0 1 0
992 2 14.525254307415976 22.45446921374236 8.215045275261003 -1 -1 1
946 1 1.8923042262402867 5.070639395090777 8.96990957942232 -1 1 -1
947 2 2.7194872354723443 4.7523098973240945 9.430283537072263 -1 1 -1
131 2 0.5766961231033019 3.2305634077579963 11.125555277234756 4 1 0
67 1 4.000900574166889 4.057300939903918 10.63931608407666 0 1 -1
68 2 4.386973908067074 3.1862251797356214 10.526249419593157 0 1 -1
69 2 4.6071912738658805 4.59176768309347 10.116044275979316 0 1 -1
1645 1 4.8198190128168985 1.3927152661547064 10.377162080918216 -1 1 0
1646 2 5.414521035891431 1.365606908091209 11.137674508442053 -1 1 0
1647 2 5.479714684425472 1.4674108351078554 9.627307316809299 -1 1 0
845 2 6.59072747395333 3.251425131858377 12.078647854599465 0 0 0
846 2 6.567410751808985 4.750718368929421 12.255226075844643 0 0 0
844 1 7.166227318391257 4.060539909327407 12.086830902472807 0 0 0
435 2 8.882211335190577 4.054233173058847 11.451508347305218 1 0 0
682 1 6.021930808289874 1.8030008399538566 12.941348653165221 0 0 2
288 2 8.794944380803384 4.006143797743509 9.294763310307756 1 0 2
614 2 12.313865297130835 1.5538405791213656 9.679538816026904 -1 0 0
613 1 12.770026253073016 2.263465209851688 9.161134715730034 -1 0 0
615 2 13.338313263295774 2.875754549521665 9.842322599026872 -1 0 0
433 1 9.52566719148192 4.267232885704079 10.700494348608805 1 0 0
1294 1 11.873437425344802 3.70655749177271 12.21523376122591 0 0 -2
1296 2 11.099651941164844 3.5091724287989168 11.714825260871057 0 0 -2
1295 2 12.444801180656388 4.283723396321621 11.688396604469322 0 0 -2
434 2 10.023781093624844 5.051352437162912 10.988517927122507 1 0 0
1116 2 15.155814729598047 4.064044906599032 10.365346561916356 -2 1 2
1114 1 14.35035149441515 3.675993203866841 10.736409147464466 -2 1 2
130 1 17.597753126136503 3.038590320073635 10.796896778387078 3 1 0
132 2 17.603256875758664 2.115042699710463 10.419124255534072 3 1 0
1115 2 14.572387653299886 2.929444843533582 11.259960554880713 -2 1 2
1174 1 15.103719807822568 1.820859482605442 12.441012295924898 2 1 -1
1175 2 15.531461638784368 2.464801761972778 13.025594537333284 2 1 -1
599 2 17.117208284059885 5.032702858427778 9.942732331209783 -1 0 0
598 1 16.26857104289809 5.214827067019732 9.628082413005403 -1 0 0
1176 2 15.664128711074262 1.0350067276025214 12.394159043288871 2 1 -1
624 2 1.8889735207057925 5.789290905589026 11.036598514070986 0 0 0
623 2 1.3574767548672777 6.967365688993824 11.898657531450482 0 0 0
622 1 1.3802520467677515 5.981829570583425 11.846871126050765 0 0 0
275 2 0.49060206845873605 8.848849604919973 12.26620016328802 -1 0 1
276 2 1.6116993244417366 8.814326596012432 11.262485179890607 -1 0 1
274 1 1.4257918317033536 8.602758981268867 12.177149365068253 -1 0 1
1022 2 3.9286208691331517 9.508937171260216 9.689658081434008 0 0 -1
1372 1 0.6713376321041836 7.8342939602835395 9.142980277224886 2 0 0
1299 2 6.512121930744997 6.031037852959523 9.092271179718969 -1 0 1
594 2 5.818991888255557 9.362518806420203 9.050927564576552 -2 0 1
1297 1 5.580085015135853 6.136799262261245 8.858918688449776 -1 0 1
592 1 5.485094503350058 8.662206640716159 9.583117224507841 -2 0 1
593 2 5.389461199130055 7.8611277200303515 9.054871481127181 -2 1 1
1067 2 6.078915859608735 8.695429255717574 11.260982658592589 -1 1 0
1066 1 6.290490741920627 8.335524755456534 12.187988204540892 -1 1 0
1068 2 7.2178249422482015 8.330517257238704 12.225768467270601 -1 1 0
981 2 5.815733308638344 7.001167197558952 12.996572749935208 1 1 1
258 2 12.223479424539534 6.221026282020402 9.124614509279409 0 0 1
1376 2 9.289156856288654 9.288752083468781 10.111804059083886 1 0 0
79 1 9.300991633078786 8.287015612125673 12.789009127671324 0 0 0
1375 1 9.855216173472606 8.799022023186957 9.493874270135638 1 0 0
1377 2 10.56011402945002 8.265208639943832 9.908134585978562 1 0 0
87 2 11.662393315401566 6.805117826105297 11.641371093959867 0 1 0
85 1 10.866241573537462 6.860588949514234 11.026661931018038 0 1 0
86 2 10.137324185131568 7.263040578555132 11.618296919161564 0 1 0
80 2 9.608894130025522 9.126850871801862 13.139672962343035 0 0 1
1621 1 13.125299613329 6.25522828616936 12.819943059828294 1 1 -1
1373 2 17.574769392402715 7.604164571794637 9.278709016641457 0 0 0
1557 2 16.705537035616857 9.694382725892282 11.294713189845938 -3 1 -1
1623 2 13.79016875920276 6.521750792744294 12.100096190737629 1 1 -1
758 2 14.12499267408079 8.700180403501044 9.507915427347854 0 0 -1
33 2 15.573973115967954 6.581637466204091 10.521034408507095 1 -1 0
31 1 15.016588889672635 7.378496631133544 10.85607504567055 1 -1 0
32 2 15.637706676840407 7.948656683289638 11.298178587789915 1 -1 0
1555 1 16.735032410673785 9.135286969930394 12.10068964115313 -3 1 -1
1556 2 16.325988399792344 9.589974201511925 12.904145217600497 -3 1 -1
1023 2 2.6956731846158584 10.451479928926146 9.166679328765829 0 0 -1
1021 1 3.2818686349575397 10.170553545888213 9.911329092948407 0 0 -1
110 2 3.5459653148931753 10.989735234722607 11.30058345725597 -1 0 0
111 2 2.7269620911162584 12.165029196308483 11.914401230349206 -1 0 0
1368 2 0.37264338233675837 13.154080489740986 10.546536810865748 1 0 0
1366 1 1.036309273783581 12.52669957504397 10.185463926455581 1 0 0
1367 2 1.7522106886926667 13.044472491476624 9.792344588414196 1 0 0
1020 2 4.26887340160041 14.344322421539134 9.2377579527075 1 1 0
1539 2 1.6310219077362649 10.765637761055176 13.160733849910148 2 0 2
109 1 3.59823291150455 11.800889117540164 11.965134031492555 -1 0 0
1018 1 3.3463360513544185 14.169775407112153 9.099430953425905 1 1 0
321 2 6.323754112474407 13.298647997690713 10.098163169406957 1 0 1
319 1 6.0237450214334185 12.423692069613262 10.157559890064194 1 0 1
320 2 5.218860815009002 12.61383957282954 10.686774827061821 1 0 1
1583 2 4.556630361243878 13.552361507186772 12.984097454706887 0 1 0
663 2 7.392234890614485 11.665340821133618 10.79354327402333 0 0 -1
1380 2 8.65948318657051 11.846218990034759 9.092916163145675 0 1 -1
661 1 8.187607820994062 11.031207520008003 10.7500785788363 0 0 -1
662 2 8.748095890850623 11.193605684413658 11.49675729073151 0 0 -1
863 2 10.785573959404974 10.990934605464435 12.532817915311204 1 0 2
56 2 12.313563235295629 12.590426574067298 11.55193000401687 0 1 0
55 1 12.450919292599616 11.629128866846584 11.281277712889736 0 1 0